Title: *** SPICE deck for cell column4_4{lay} from library SRAM_8x8
Date: Fri Apr 03 11:32:48 2015
Plotname: Operating Point
Flags: real
No. Variables: 2334
No. Points:            1
Offset:   0.0000000000000000e+000
Command: Linear Technology Corporation LTspice IV
Variables:
	0	V(net@4666)	voltage
	1	V(vdd)	voltage
	2	V(net@4673)	voltage
	3	V(net@4686)	voltage
	4	V(net@4676)	voltage
	5	V(net@4678)	voltage
	6	V(net@4681)	voltage
	7	V(net@4682)	voltage
	8	V(net@6205)	voltage
	9	V(den)	voltage
	10	V(a)	voltage
	11	V(b)	voltage
	12	V(c)	voltage
	13	V(net@387)	voltage
	14	V(net@1411)	voltage
	15	V(net@1997)	voltage
	16	V(net@1803)	voltage
	17	V(net@2586)	voltage
	18	V(net@2604)	voltage
	19	V(net@3190)	voltage
	20	V(net@2996)	voltage
	21	V(net@339)	voltage
	22	V(net@329)	voltage
	23	V(net@480)	voltage
	24	V(net@481)	voltage
	25	V(net@586)	voltage
	26	V(net@584)	voltage
	27	V(net@613)	voltage
	28	V(net@614)	voltage
	29	V(net@634)	voltage
	30	V(net@632)	voltage
	31	V(net@661)	voltage
	32	V(net@662)	voltage
	33	V(net@683)	voltage
	34	V(net@681)	voltage
	35	V(net@710)	voltage
	36	V(net@711)	voltage
	37	V(net@727)	voltage
	38	V(net@725)	voltage
	39	V(net@754)	voltage
	40	V(net@755)	voltage
	41	V(net@771)	voltage
	42	V(net@769)	voltage
	43	V(net@798)	voltage
	44	V(net@799)	voltage
	45	V(net@924)	voltage
	46	V(net@922)	voltage
	47	V(net@951)	voltage
	48	V(net@952)	voltage
	49	V(net@971)	voltage
	50	V(net@969)	voltage
	51	V(net@998)	voltage
	52	V(net@999)	voltage
	53	V(net@1415)	voltage
	54	V(net@1413)	voltage
	55	V(net@1458)	voltage
	56	V(net@1456)	voltage
	57	V(net@1504)	voltage
	58	V(net@1502)	voltage
	59	V(net@1549)	voltage
	60	V(net@1547)	voltage
	61	V(net@1593)	voltage
	62	V(net@1591)	voltage
	63	V(net@1637)	voltage
	64	V(net@1635)	voltage
	65	V(net@1693)	voltage
	66	V(net@1691)	voltage
	67	V(net@1400)	voltage
	68	V(net@1403)	voltage
	69	V(net@1987)	voltage
	70	V(net@1985)	voltage
	71	V(net@2030)	voltage
	72	V(net@2028)	voltage
	73	V(net@2076)	voltage
	74	V(net@2074)	voltage
	75	V(net@2121)	voltage
	76	V(net@2119)	voltage
	77	V(net@2165)	voltage
	78	V(net@2163)	voltage
	79	V(net@2209)	voltage
	80	V(net@2207)	voltage
	81	V(net@2265)	voltage
	82	V(net@2263)	voltage
	83	V(net@2312)	voltage
	84	V(net@2310)	voltage
	85	V(net@2379)	voltage
	86	V(net@2377)	voltage
	87	V(net@2422)	voltage
	88	V(net@2420)	voltage
	89	V(net@2468)	voltage
	90	V(net@2466)	voltage
	91	V(net@1785)	voltage
	92	V(net@1786)	voltage
	93	V(net@1793)	voltage
	94	V(net@1791)	voltage
	95	V(net@1837)	voltage
	96	V(net@1835)	voltage
	97	V(net@1893)	voltage
	98	V(net@1891)	voltage
	99	V(net@1940)	voltage
	100	V(net@1938)	voltage
	101	V(p47)	voltage
	102	V(o47)	voltage
	103	V(p46)	voltage
	104	V(net@3802)	voltage
	105	V(p45)	voltage
	106	V(net@3848)	voltage
	107	V(p44)	voltage
	108	V(net@3893)	voltage
	109	V(p43)	voltage
	110	V(net@3937)	voltage
	111	V(p42)	voltage
	112	V(net@3981)	voltage
	113	V(p41)	voltage
	114	V(net@4037)	voltage
	115	V(p40)	voltage
	116	V(o40)	voltage
	117	V(p57)	voltage
	118	V(o57)	voltage
	119	V(p56)	voltage
	120	V(net@2649)	voltage
	121	V(p55)	voltage
	122	V(net@2695)	voltage
	123	V(p54)	voltage
	124	V(net@2740)	voltage
	125	V(p53)	voltage
	126	V(net@2784)	voltage
	127	V(p52)	voltage
	128	V(net@2828)	voltage
	129	V(p51)	voltage
	130	V(net@2884)	voltage
	131	V(p50)	voltage
	132	V(o50)	voltage
	133	V(net@3180)	voltage
	134	V(net@3178)	voltage
	135	V(net@3223)	voltage
	136	V(net@3221)	voltage
	137	V(net@3269)	voltage
	138	V(net@3267)	voltage
	139	V(net@3314)	voltage
	140	V(net@3312)	voltage
	141	V(net@3358)	voltage
	142	V(net@3356)	voltage
	143	V(net@3402)	voltage
	144	V(net@3400)	voltage
	145	V(net@3458)	voltage
	146	V(net@3456)	voltage
	147	V(net@3505)	voltage
	148	V(net@3503)	voltage
	149	V(p77)	voltage
	150	V(o77)	voltage
	151	V(p76)	voltage
	152	V(net@3613)	voltage
	153	V(p75)	voltage
	154	V(net@3659)	voltage
	155	V(p74)	voltage
	156	V(net@2979)	voltage
	157	V(p73)	voltage
	158	V(net@2984)	voltage
	159	V(p72)	voltage
	160	V(net@3028)	voltage
	161	V(p71)	voltage
	162	V(net@3084)	voltage
	163	V(p70)	voltage
	164	V(o70)	voltage
	165	V(net@6542)	voltage
	166	V(qo)	voltage
	167	V(net@7169)	voltage
	168	V(sae)	voltage
	169	V(net@7127)	voltage
	170	V(we)	voltage
	171	V(d0)	voltage
	172	V(net@7132)	voltage
	173	V(net@7143)	voltage
	174	V(net@7227)	voltage
	175	V(q1)	voltage
	176	V(net@7279)	voltage
	177	V(net@7234)	voltage
	178	V(d1)	voltage
	179	V(net@7240)	voltage
	180	V(net@7251)	voltage
	181	V(net@6414)	voltage
	182	V(q2)	voltage
	183	V(net@6837)	voltage
	184	V(net@7081)	voltage
	185	V(d2)	voltage
	186	V(net@6438)	voltage
	187	V(net@6549)	voltage
	188	V(net@6419)	voltage
	189	V(q3)	voltage
	190	V(net@6468)	voltage
	191	V(net@6423)	voltage
	192	V(d3)	voltage
	193	V(net@6429)	voltage
	194	V(net@6440)	voltage
	195	V(net@6769)	voltage
	196	V(q4)	voltage
	197	V(net@6822)	voltage
	198	V(net@6777)	voltage
	199	V(d4)	voltage
	200	V(net@6783)	voltage
	201	V(net@6794)	voltage
	202	V(net@6879)	voltage
	203	V(q5)	voltage
	204	V(net@6932)	voltage
	205	V(net@6887)	voltage
	206	V(d5)	voltage
	207	V(net@6892)	voltage
	208	V(net@6903)	voltage
	209	V(net@6536)	voltage
	210	V(q6)	voltage
	211	V(net@6590)	voltage
	212	V(net@6545)	voltage
	213	V(d6)	voltage
	214	V(net@6551)	voltage
	215	V(net@6562)	voltage
	216	V(net@6648)	voltage
	217	V(q7)	voltage
	218	V(net@6702)	voltage
	219	V(net@6656)	voltage
	220	V(d7)	voltage
	221	V(net@6663)	voltage
	222	V(net@6674)	voltage
	223	V(p)	voltage
	224	Id(Mpmos@264)	device_current
	225	Ig(Mpmos@264)	device_current
	226	Ib(Mpmos@264)	device_current
	227	Is(Mpmos@264)	device_current
	228	Id(Mpmos@263)	device_current
	229	Ig(Mpmos@263)	device_current
	230	Ib(Mpmos@263)	device_current
	231	Is(Mpmos@263)	device_current
	232	Id(Mpmos@262)	device_current
	233	Ig(Mpmos@262)	device_current
	234	Ib(Mpmos@262)	device_current
	235	Is(Mpmos@262)	device_current
	236	Id(Mpmos@261)	device_current
	237	Ig(Mpmos@261)	device_current
	238	Ib(Mpmos@261)	device_current
	239	Is(Mpmos@261)	device_current
	240	Id(Mpmos@260)	device_current
	241	Ig(Mpmos@260)	device_current
	242	Ib(Mpmos@260)	device_current
	243	Is(Mpmos@260)	device_current
	244	Id(Mpmos@259)	device_current
	245	Ig(Mpmos@259)	device_current
	246	Ib(Mpmos@259)	device_current
	247	Is(Mpmos@259)	device_current
	248	Id(Mpmos@258)	device_current
	249	Ig(Mpmos@258)	device_current
	250	Ib(Mpmos@258)	device_current
	251	Is(Mpmos@258)	device_current
	252	Id(Mpmos@257)	device_current
	253	Ig(Mpmos@257)	device_current
	254	Ib(Mpmos@257)	device_current
	255	Is(Mpmos@257)	device_current
	256	Id(Mpmos@256)	device_current
	257	Ig(Mpmos@256)	device_current
	258	Ib(Mpmos@256)	device_current
	259	Is(Mpmos@256)	device_current
	260	Id(Mpmos@255)	device_current
	261	Ig(Mpmos@255)	device_current
	262	Ib(Mpmos@255)	device_current
	263	Is(Mpmos@255)	device_current
	264	Id(Mpmos@254)	device_current
	265	Ig(Mpmos@254)	device_current
	266	Ib(Mpmos@254)	device_current
	267	Is(Mpmos@254)	device_current
	268	Id(Mpmos@253)	device_current
	269	Ig(Mpmos@253)	device_current
	270	Ib(Mpmos@253)	device_current
	271	Is(Mpmos@253)	device_current
	272	Id(Mpmos@252)	device_current
	273	Ig(Mpmos@252)	device_current
	274	Ib(Mpmos@252)	device_current
	275	Is(Mpmos@252)	device_current
	276	Id(Mpmos@251)	device_current
	277	Ig(Mpmos@251)	device_current
	278	Ib(Mpmos@251)	device_current
	279	Is(Mpmos@251)	device_current
	280	Id(Mpmos@250)	device_current
	281	Ig(Mpmos@250)	device_current
	282	Ib(Mpmos@250)	device_current
	283	Is(Mpmos@250)	device_current
	284	Id(Mpmos@249)	device_current
	285	Ig(Mpmos@249)	device_current
	286	Ib(Mpmos@249)	device_current
	287	Is(Mpmos@249)	device_current
	288	Id(Mpmos@248)	device_current
	289	Ig(Mpmos@248)	device_current
	290	Ib(Mpmos@248)	device_current
	291	Is(Mpmos@248)	device_current
	292	Id(Mpmos@247)	device_current
	293	Ig(Mpmos@247)	device_current
	294	Ib(Mpmos@247)	device_current
	295	Is(Mpmos@247)	device_current
	296	Id(Mpmos@246)	device_current
	297	Ig(Mpmos@246)	device_current
	298	Ib(Mpmos@246)	device_current
	299	Is(Mpmos@246)	device_current
	300	Id(Mpmos@245)	device_current
	301	Ig(Mpmos@245)	device_current
	302	Ib(Mpmos@245)	device_current
	303	Is(Mpmos@245)	device_current
	304	Id(Mpmos@244)	device_current
	305	Ig(Mpmos@244)	device_current
	306	Ib(Mpmos@244)	device_current
	307	Is(Mpmos@244)	device_current
	308	Id(Mpmos@243)	device_current
	309	Ig(Mpmos@243)	device_current
	310	Ib(Mpmos@243)	device_current
	311	Is(Mpmos@243)	device_current
	312	Id(Mpmos@242)	device_current
	313	Ig(Mpmos@242)	device_current
	314	Ib(Mpmos@242)	device_current
	315	Is(Mpmos@242)	device_current
	316	Id(Mpmos@241)	device_current
	317	Ig(Mpmos@241)	device_current
	318	Ib(Mpmos@241)	device_current
	319	Is(Mpmos@241)	device_current
	320	Id(Mpmos@240)	device_current
	321	Ig(Mpmos@240)	device_current
	322	Ib(Mpmos@240)	device_current
	323	Is(Mpmos@240)	device_current
	324	Id(Mpmos@239)	device_current
	325	Ig(Mpmos@239)	device_current
	326	Ib(Mpmos@239)	device_current
	327	Is(Mpmos@239)	device_current
	328	Id(Mpmos@238)	device_current
	329	Ig(Mpmos@238)	device_current
	330	Ib(Mpmos@238)	device_current
	331	Is(Mpmos@238)	device_current
	332	Id(Mpmos@237)	device_current
	333	Ig(Mpmos@237)	device_current
	334	Ib(Mpmos@237)	device_current
	335	Is(Mpmos@237)	device_current
	336	Id(Mpmos@236)	device_current
	337	Ig(Mpmos@236)	device_current
	338	Ib(Mpmos@236)	device_current
	339	Is(Mpmos@236)	device_current
	340	Id(Mpmos@235)	device_current
	341	Ig(Mpmos@235)	device_current
	342	Ib(Mpmos@235)	device_current
	343	Is(Mpmos@235)	device_current
	344	Id(Mpmos@234)	device_current
	345	Ig(Mpmos@234)	device_current
	346	Ib(Mpmos@234)	device_current
	347	Is(Mpmos@234)	device_current
	348	Id(Mpmos@233)	device_current
	349	Ig(Mpmos@233)	device_current
	350	Ib(Mpmos@233)	device_current
	351	Is(Mpmos@233)	device_current
	352	Id(Mpmos@232)	device_current
	353	Ig(Mpmos@232)	device_current
	354	Ib(Mpmos@232)	device_current
	355	Is(Mpmos@232)	device_current
	356	Id(Mpmos@231)	device_current
	357	Ig(Mpmos@231)	device_current
	358	Ib(Mpmos@231)	device_current
	359	Is(Mpmos@231)	device_current
	360	Id(Mpmos@230)	device_current
	361	Ig(Mpmos@230)	device_current
	362	Ib(Mpmos@230)	device_current
	363	Is(Mpmos@230)	device_current
	364	Id(Mpmos@229)	device_current
	365	Ig(Mpmos@229)	device_current
	366	Ib(Mpmos@229)	device_current
	367	Is(Mpmos@229)	device_current
	368	Id(Mpmos@228)	device_current
	369	Ig(Mpmos@228)	device_current
	370	Ib(Mpmos@228)	device_current
	371	Is(Mpmos@228)	device_current
	372	Id(Mpmos@227)	device_current
	373	Ig(Mpmos@227)	device_current
	374	Ib(Mpmos@227)	device_current
	375	Is(Mpmos@227)	device_current
	376	Id(Mpmos@226)	device_current
	377	Ig(Mpmos@226)	device_current
	378	Ib(Mpmos@226)	device_current
	379	Is(Mpmos@226)	device_current
	380	Id(Mpmos@225)	device_current
	381	Ig(Mpmos@225)	device_current
	382	Ib(Mpmos@225)	device_current
	383	Is(Mpmos@225)	device_current
	384	Id(Mpmos@224)	device_current
	385	Ig(Mpmos@224)	device_current
	386	Ib(Mpmos@224)	device_current
	387	Is(Mpmos@224)	device_current
	388	Id(Mpmos@223)	device_current
	389	Ig(Mpmos@223)	device_current
	390	Ib(Mpmos@223)	device_current
	391	Is(Mpmos@223)	device_current
	392	Id(Mpmos@222)	device_current
	393	Ig(Mpmos@222)	device_current
	394	Ib(Mpmos@222)	device_current
	395	Is(Mpmos@222)	device_current
	396	Id(Mpmos@221)	device_current
	397	Ig(Mpmos@221)	device_current
	398	Ib(Mpmos@221)	device_current
	399	Is(Mpmos@221)	device_current
	400	Id(Mpmos@220)	device_current
	401	Ig(Mpmos@220)	device_current
	402	Ib(Mpmos@220)	device_current
	403	Is(Mpmos@220)	device_current
	404	Id(Mpmos@219)	device_current
	405	Ig(Mpmos@219)	device_current
	406	Ib(Mpmos@219)	device_current
	407	Is(Mpmos@219)	device_current
	408	Id(Mpmos@218)	device_current
	409	Ig(Mpmos@218)	device_current
	410	Ib(Mpmos@218)	device_current
	411	Is(Mpmos@218)	device_current
	412	Id(Mpmos@217)	device_current
	413	Ig(Mpmos@217)	device_current
	414	Ib(Mpmos@217)	device_current
	415	Is(Mpmos@217)	device_current
	416	Id(Mpmos@216)	device_current
	417	Ig(Mpmos@216)	device_current
	418	Ib(Mpmos@216)	device_current
	419	Is(Mpmos@216)	device_current
	420	Id(Mpmos@215)	device_current
	421	Ig(Mpmos@215)	device_current
	422	Ib(Mpmos@215)	device_current
	423	Is(Mpmos@215)	device_current
	424	Id(Mpmos@214)	device_current
	425	Ig(Mpmos@214)	device_current
	426	Ib(Mpmos@214)	device_current
	427	Is(Mpmos@214)	device_current
	428	Id(Mpmos@213)	device_current
	429	Ig(Mpmos@213)	device_current
	430	Ib(Mpmos@213)	device_current
	431	Is(Mpmos@213)	device_current
	432	Id(Mpmos@212)	device_current
	433	Ig(Mpmos@212)	device_current
	434	Ib(Mpmos@212)	device_current
	435	Is(Mpmos@212)	device_current
	436	Id(Mpmos@211)	device_current
	437	Ig(Mpmos@211)	device_current
	438	Ib(Mpmos@211)	device_current
	439	Is(Mpmos@211)	device_current
	440	Id(Mpmos@210)	device_current
	441	Ig(Mpmos@210)	device_current
	442	Ib(Mpmos@210)	device_current
	443	Is(Mpmos@210)	device_current
	444	Id(Mpmos@209)	device_current
	445	Ig(Mpmos@209)	device_current
	446	Ib(Mpmos@209)	device_current
	447	Is(Mpmos@209)	device_current
	448	Id(Mpmos@208)	device_current
	449	Ig(Mpmos@208)	device_current
	450	Ib(Mpmos@208)	device_current
	451	Is(Mpmos@208)	device_current
	452	Id(Mpmos@207)	device_current
	453	Ig(Mpmos@207)	device_current
	454	Ib(Mpmos@207)	device_current
	455	Is(Mpmos@207)	device_current
	456	Id(Mpmos@203)	device_current
	457	Ig(Mpmos@203)	device_current
	458	Ib(Mpmos@203)	device_current
	459	Is(Mpmos@203)	device_current
	460	Id(Mpmos@202)	device_current
	461	Ig(Mpmos@202)	device_current
	462	Ib(Mpmos@202)	device_current
	463	Is(Mpmos@202)	device_current
	464	Id(Mpmos@201)	device_current
	465	Ig(Mpmos@201)	device_current
	466	Ib(Mpmos@201)	device_current
	467	Is(Mpmos@201)	device_current
	468	Id(Mpmos@200)	device_current
	469	Ig(Mpmos@200)	device_current
	470	Ib(Mpmos@200)	device_current
	471	Is(Mpmos@200)	device_current
	472	Id(Mpmos@199)	device_current
	473	Ig(Mpmos@199)	device_current
	474	Ib(Mpmos@199)	device_current
	475	Is(Mpmos@199)	device_current
	476	Id(Mpmos@198)	device_current
	477	Ig(Mpmos@198)	device_current
	478	Ib(Mpmos@198)	device_current
	479	Is(Mpmos@198)	device_current
	480	Id(Mpmos@157)	device_current
	481	Ig(Mpmos@157)	device_current
	482	Ib(Mpmos@157)	device_current
	483	Is(Mpmos@157)	device_current
	484	Id(Mpmos@156)	device_current
	485	Ig(Mpmos@156)	device_current
	486	Ib(Mpmos@156)	device_current
	487	Is(Mpmos@156)	device_current
	488	Id(Mpmos@155)	device_current
	489	Ig(Mpmos@155)	device_current
	490	Ib(Mpmos@155)	device_current
	491	Is(Mpmos@155)	device_current
	492	Id(Mpmos@154)	device_current
	493	Ig(Mpmos@154)	device_current
	494	Ib(Mpmos@154)	device_current
	495	Is(Mpmos@154)	device_current
	496	Id(Mpmos@153)	device_current
	497	Ig(Mpmos@153)	device_current
	498	Ib(Mpmos@153)	device_current
	499	Is(Mpmos@153)	device_current
	500	Id(Mpmos@152)	device_current
	501	Ig(Mpmos@152)	device_current
	502	Ib(Mpmos@152)	device_current
	503	Is(Mpmos@152)	device_current
	504	Id(Mpmos@151)	device_current
	505	Ig(Mpmos@151)	device_current
	506	Ib(Mpmos@151)	device_current
	507	Is(Mpmos@151)	device_current
	508	Id(Mpmos@150)	device_current
	509	Ig(Mpmos@150)	device_current
	510	Ib(Mpmos@150)	device_current
	511	Is(Mpmos@150)	device_current
	512	Id(Mpmos@149)	device_current
	513	Ig(Mpmos@149)	device_current
	514	Ib(Mpmos@149)	device_current
	515	Is(Mpmos@149)	device_current
	516	Id(Mpmos@148)	device_current
	517	Ig(Mpmos@148)	device_current
	518	Ib(Mpmos@148)	device_current
	519	Is(Mpmos@148)	device_current
	520	Id(Mpmos@147)	device_current
	521	Ig(Mpmos@147)	device_current
	522	Ib(Mpmos@147)	device_current
	523	Is(Mpmos@147)	device_current
	524	Id(Mpmos@146)	device_current
	525	Ig(Mpmos@146)	device_current
	526	Ib(Mpmos@146)	device_current
	527	Is(Mpmos@146)	device_current
	528	Id(Mpmos@145)	device_current
	529	Ig(Mpmos@145)	device_current
	530	Ib(Mpmos@145)	device_current
	531	Is(Mpmos@145)	device_current
	532	Id(Mpmos@144)	device_current
	533	Ig(Mpmos@144)	device_current
	534	Ib(Mpmos@144)	device_current
	535	Is(Mpmos@144)	device_current
	536	Id(Mpmos@143)	device_current
	537	Ig(Mpmos@143)	device_current
	538	Ib(Mpmos@143)	device_current
	539	Is(Mpmos@143)	device_current
	540	Id(Mpmos@142)	device_current
	541	Ig(Mpmos@142)	device_current
	542	Ib(Mpmos@142)	device_current
	543	Is(Mpmos@142)	device_current
	544	Id(Mpmos@141)	device_current
	545	Ig(Mpmos@141)	device_current
	546	Ib(Mpmos@141)	device_current
	547	Is(Mpmos@141)	device_current
	548	Id(Mpmos@140)	device_current
	549	Ig(Mpmos@140)	device_current
	550	Ib(Mpmos@140)	device_current
	551	Is(Mpmos@140)	device_current
	552	Id(Mpmos@139)	device_current
	553	Ig(Mpmos@139)	device_current
	554	Ib(Mpmos@139)	device_current
	555	Is(Mpmos@139)	device_current
	556	Id(Mpmos@138)	device_current
	557	Ig(Mpmos@138)	device_current
	558	Ib(Mpmos@138)	device_current
	559	Is(Mpmos@138)	device_current
	560	Id(Mpmos@137)	device_current
	561	Ig(Mpmos@137)	device_current
	562	Ib(Mpmos@137)	device_current
	563	Is(Mpmos@137)	device_current
	564	Id(Mpmos@136)	device_current
	565	Ig(Mpmos@136)	device_current
	566	Ib(Mpmos@136)	device_current
	567	Is(Mpmos@136)	device_current
	568	Id(Mpmos@135)	device_current
	569	Ig(Mpmos@135)	device_current
	570	Ib(Mpmos@135)	device_current
	571	Is(Mpmos@135)	device_current
	572	Id(Mpmos@134)	device_current
	573	Ig(Mpmos@134)	device_current
	574	Ib(Mpmos@134)	device_current
	575	Is(Mpmos@134)	device_current
	576	Id(Mpmos@133)	device_current
	577	Ig(Mpmos@133)	device_current
	578	Ib(Mpmos@133)	device_current
	579	Is(Mpmos@133)	device_current
	580	Id(Mpmos@132)	device_current
	581	Ig(Mpmos@132)	device_current
	582	Ib(Mpmos@132)	device_current
	583	Is(Mpmos@132)	device_current
	584	Id(Mpmos@131)	device_current
	585	Ig(Mpmos@131)	device_current
	586	Ib(Mpmos@131)	device_current
	587	Is(Mpmos@131)	device_current
	588	Id(Mpmos@130)	device_current
	589	Ig(Mpmos@130)	device_current
	590	Ib(Mpmos@130)	device_current
	591	Is(Mpmos@130)	device_current
	592	Id(Mpmos@129)	device_current
	593	Ig(Mpmos@129)	device_current
	594	Ib(Mpmos@129)	device_current
	595	Is(Mpmos@129)	device_current
	596	Id(Mpmos@128)	device_current
	597	Ig(Mpmos@128)	device_current
	598	Ib(Mpmos@128)	device_current
	599	Is(Mpmos@128)	device_current
	600	Id(Mpmos@127)	device_current
	601	Ig(Mpmos@127)	device_current
	602	Ib(Mpmos@127)	device_current
	603	Is(Mpmos@127)	device_current
	604	Id(Mpmos@126)	device_current
	605	Ig(Mpmos@126)	device_current
	606	Ib(Mpmos@126)	device_current
	607	Is(Mpmos@126)	device_current
	608	Id(Mpmos@125)	device_current
	609	Ig(Mpmos@125)	device_current
	610	Ib(Mpmos@125)	device_current
	611	Is(Mpmos@125)	device_current
	612	Id(Mpmos@124)	device_current
	613	Ig(Mpmos@124)	device_current
	614	Ib(Mpmos@124)	device_current
	615	Is(Mpmos@124)	device_current
	616	Id(Mpmos@123)	device_current
	617	Ig(Mpmos@123)	device_current
	618	Ib(Mpmos@123)	device_current
	619	Is(Mpmos@123)	device_current
	620	Id(Mpmos@122)	device_current
	621	Ig(Mpmos@122)	device_current
	622	Ib(Mpmos@122)	device_current
	623	Is(Mpmos@122)	device_current
	624	Id(Mpmos@121)	device_current
	625	Ig(Mpmos@121)	device_current
	626	Ib(Mpmos@121)	device_current
	627	Is(Mpmos@121)	device_current
	628	Id(Mpmos@120)	device_current
	629	Ig(Mpmos@120)	device_current
	630	Ib(Mpmos@120)	device_current
	631	Is(Mpmos@120)	device_current
	632	Id(Mpmos@119)	device_current
	633	Ig(Mpmos@119)	device_current
	634	Ib(Mpmos@119)	device_current
	635	Is(Mpmos@119)	device_current
	636	Id(Mpmos@118)	device_current
	637	Ig(Mpmos@118)	device_current
	638	Ib(Mpmos@118)	device_current
	639	Is(Mpmos@118)	device_current
	640	Id(Mpmos@117)	device_current
	641	Ig(Mpmos@117)	device_current
	642	Ib(Mpmos@117)	device_current
	643	Is(Mpmos@117)	device_current
	644	Id(Mpmos@116)	device_current
	645	Ig(Mpmos@116)	device_current
	646	Ib(Mpmos@116)	device_current
	647	Is(Mpmos@116)	device_current
	648	Id(Mpmos@115)	device_current
	649	Ig(Mpmos@115)	device_current
	650	Ib(Mpmos@115)	device_current
	651	Is(Mpmos@115)	device_current
	652	Id(Mpmos@114)	device_current
	653	Ig(Mpmos@114)	device_current
	654	Ib(Mpmos@114)	device_current
	655	Is(Mpmos@114)	device_current
	656	Id(Mpmos@113)	device_current
	657	Ig(Mpmos@113)	device_current
	658	Ib(Mpmos@113)	device_current
	659	Is(Mpmos@113)	device_current
	660	Id(Mpmos@112)	device_current
	661	Ig(Mpmos@112)	device_current
	662	Ib(Mpmos@112)	device_current
	663	Is(Mpmos@112)	device_current
	664	Id(Mpmos@111)	device_current
	665	Ig(Mpmos@111)	device_current
	666	Ib(Mpmos@111)	device_current
	667	Is(Mpmos@111)	device_current
	668	Id(Mpmos@110)	device_current
	669	Ig(Mpmos@110)	device_current
	670	Ib(Mpmos@110)	device_current
	671	Is(Mpmos@110)	device_current
	672	Id(Mpmos@109)	device_current
	673	Ig(Mpmos@109)	device_current
	674	Ib(Mpmos@109)	device_current
	675	Is(Mpmos@109)	device_current
	676	Id(Mpmos@108)	device_current
	677	Ig(Mpmos@108)	device_current
	678	Ib(Mpmos@108)	device_current
	679	Is(Mpmos@108)	device_current
	680	Id(Mpmos@107)	device_current
	681	Ig(Mpmos@107)	device_current
	682	Ib(Mpmos@107)	device_current
	683	Is(Mpmos@107)	device_current
	684	Id(Mpmos@106)	device_current
	685	Ig(Mpmos@106)	device_current
	686	Ib(Mpmos@106)	device_current
	687	Is(Mpmos@106)	device_current
	688	Id(Mpmos@105)	device_current
	689	Ig(Mpmos@105)	device_current
	690	Ib(Mpmos@105)	device_current
	691	Is(Mpmos@105)	device_current
	692	Id(Mpmos@104)	device_current
	693	Ig(Mpmos@104)	device_current
	694	Ib(Mpmos@104)	device_current
	695	Is(Mpmos@104)	device_current
	696	Id(Mpmos@103)	device_current
	697	Ig(Mpmos@103)	device_current
	698	Ib(Mpmos@103)	device_current
	699	Is(Mpmos@103)	device_current
	700	Id(Mpmos@102)	device_current
	701	Ig(Mpmos@102)	device_current
	702	Ib(Mpmos@102)	device_current
	703	Is(Mpmos@102)	device_current
	704	Id(Mpmos@101)	device_current
	705	Ig(Mpmos@101)	device_current
	706	Ib(Mpmos@101)	device_current
	707	Is(Mpmos@101)	device_current
	708	Id(Mpmos@100)	device_current
	709	Ig(Mpmos@100)	device_current
	710	Ib(Mpmos@100)	device_current
	711	Is(Mpmos@100)	device_current
	712	Id(Mpmos@99)	device_current
	713	Ig(Mpmos@99)	device_current
	714	Ib(Mpmos@99)	device_current
	715	Is(Mpmos@99)	device_current
	716	Id(Mpmos@98)	device_current
	717	Ig(Mpmos@98)	device_current
	718	Ib(Mpmos@98)	device_current
	719	Is(Mpmos@98)	device_current
	720	Id(Mpmos@97)	device_current
	721	Ig(Mpmos@97)	device_current
	722	Ib(Mpmos@97)	device_current
	723	Is(Mpmos@97)	device_current
	724	Id(Mpmos@96)	device_current
	725	Ig(Mpmos@96)	device_current
	726	Ib(Mpmos@96)	device_current
	727	Is(Mpmos@96)	device_current
	728	Id(Mpmos@95)	device_current
	729	Ig(Mpmos@95)	device_current
	730	Ib(Mpmos@95)	device_current
	731	Is(Mpmos@95)	device_current
	732	Id(Mpmos@94)	device_current
	733	Ig(Mpmos@94)	device_current
	734	Ib(Mpmos@94)	device_current
	735	Is(Mpmos@94)	device_current
	736	Id(Mpmos@93)	device_current
	737	Ig(Mpmos@93)	device_current
	738	Ib(Mpmos@93)	device_current
	739	Is(Mpmos@93)	device_current
	740	Id(Mpmos@92)	device_current
	741	Ig(Mpmos@92)	device_current
	742	Ib(Mpmos@92)	device_current
	743	Is(Mpmos@92)	device_current
	744	Id(Mpmos@91)	device_current
	745	Ig(Mpmos@91)	device_current
	746	Ib(Mpmos@91)	device_current
	747	Is(Mpmos@91)	device_current
	748	Id(Mpmos@90)	device_current
	749	Ig(Mpmos@90)	device_current
	750	Ib(Mpmos@90)	device_current
	751	Is(Mpmos@90)	device_current
	752	Id(Mpmos@89)	device_current
	753	Ig(Mpmos@89)	device_current
	754	Ib(Mpmos@89)	device_current
	755	Is(Mpmos@89)	device_current
	756	Id(Mpmos@88)	device_current
	757	Ig(Mpmos@88)	device_current
	758	Ib(Mpmos@88)	device_current
	759	Is(Mpmos@88)	device_current
	760	Id(Mpmos@87)	device_current
	761	Ig(Mpmos@87)	device_current
	762	Ib(Mpmos@87)	device_current
	763	Is(Mpmos@87)	device_current
	764	Id(Mpmos@86)	device_current
	765	Ig(Mpmos@86)	device_current
	766	Ib(Mpmos@86)	device_current
	767	Is(Mpmos@86)	device_current
	768	Id(Mpmos@85)	device_current
	769	Ig(Mpmos@85)	device_current
	770	Ib(Mpmos@85)	device_current
	771	Is(Mpmos@85)	device_current
	772	Id(Mpmos@84)	device_current
	773	Ig(Mpmos@84)	device_current
	774	Ib(Mpmos@84)	device_current
	775	Is(Mpmos@84)	device_current
	776	Id(Mpmos@83)	device_current
	777	Ig(Mpmos@83)	device_current
	778	Ib(Mpmos@83)	device_current
	779	Is(Mpmos@83)	device_current
	780	Id(Mpmos@82)	device_current
	781	Ig(Mpmos@82)	device_current
	782	Ib(Mpmos@82)	device_current
	783	Is(Mpmos@82)	device_current
	784	Id(Mpmos@81)	device_current
	785	Ig(Mpmos@81)	device_current
	786	Ib(Mpmos@81)	device_current
	787	Is(Mpmos@81)	device_current
	788	Id(Mpmos@80)	device_current
	789	Ig(Mpmos@80)	device_current
	790	Ib(Mpmos@80)	device_current
	791	Is(Mpmos@80)	device_current
	792	Id(Mpmos@79)	device_current
	793	Ig(Mpmos@79)	device_current
	794	Ib(Mpmos@79)	device_current
	795	Is(Mpmos@79)	device_current
	796	Id(Mpmos@78)	device_current
	797	Ig(Mpmos@78)	device_current
	798	Ib(Mpmos@78)	device_current
	799	Is(Mpmos@78)	device_current
	800	Id(Mpmos@77)	device_current
	801	Ig(Mpmos@77)	device_current
	802	Ib(Mpmos@77)	device_current
	803	Is(Mpmos@77)	device_current
	804	Id(Mpmos@76)	device_current
	805	Ig(Mpmos@76)	device_current
	806	Ib(Mpmos@76)	device_current
	807	Is(Mpmos@76)	device_current
	808	Id(Mpmos@75)	device_current
	809	Ig(Mpmos@75)	device_current
	810	Ib(Mpmos@75)	device_current
	811	Is(Mpmos@75)	device_current
	812	Id(Mpmos@74)	device_current
	813	Ig(Mpmos@74)	device_current
	814	Ib(Mpmos@74)	device_current
	815	Is(Mpmos@74)	device_current
	816	Id(Mpmos@73)	device_current
	817	Ig(Mpmos@73)	device_current
	818	Ib(Mpmos@73)	device_current
	819	Is(Mpmos@73)	device_current
	820	Id(Mpmos@72)	device_current
	821	Ig(Mpmos@72)	device_current
	822	Ib(Mpmos@72)	device_current
	823	Is(Mpmos@72)	device_current
	824	Id(Mpmos@71)	device_current
	825	Ig(Mpmos@71)	device_current
	826	Ib(Mpmos@71)	device_current
	827	Is(Mpmos@71)	device_current
	828	Id(Mpmos@70)	device_current
	829	Ig(Mpmos@70)	device_current
	830	Ib(Mpmos@70)	device_current
	831	Is(Mpmos@70)	device_current
	832	Id(Mpmos@69)	device_current
	833	Ig(Mpmos@69)	device_current
	834	Ib(Mpmos@69)	device_current
	835	Is(Mpmos@69)	device_current
	836	Id(Mpmos@68)	device_current
	837	Ig(Mpmos@68)	device_current
	838	Ib(Mpmos@68)	device_current
	839	Is(Mpmos@68)	device_current
	840	Id(Mpmos@67)	device_current
	841	Ig(Mpmos@67)	device_current
	842	Ib(Mpmos@67)	device_current
	843	Is(Mpmos@67)	device_current
	844	Id(Mpmos@66)	device_current
	845	Ig(Mpmos@66)	device_current
	846	Ib(Mpmos@66)	device_current
	847	Is(Mpmos@66)	device_current
	848	Id(Mpmos@65)	device_current
	849	Ig(Mpmos@65)	device_current
	850	Ib(Mpmos@65)	device_current
	851	Is(Mpmos@65)	device_current
	852	Id(Mpmos@64)	device_current
	853	Ig(Mpmos@64)	device_current
	854	Ib(Mpmos@64)	device_current
	855	Is(Mpmos@64)	device_current
	856	Id(Mpmos@63)	device_current
	857	Ig(Mpmos@63)	device_current
	858	Ib(Mpmos@63)	device_current
	859	Is(Mpmos@63)	device_current
	860	Id(Mpmos@62)	device_current
	861	Ig(Mpmos@62)	device_current
	862	Ib(Mpmos@62)	device_current
	863	Is(Mpmos@62)	device_current
	864	Id(Mpmos@61)	device_current
	865	Ig(Mpmos@61)	device_current
	866	Ib(Mpmos@61)	device_current
	867	Is(Mpmos@61)	device_current
	868	Id(Mpmos@60)	device_current
	869	Ig(Mpmos@60)	device_current
	870	Ib(Mpmos@60)	device_current
	871	Is(Mpmos@60)	device_current
	872	Id(Mpmos@59)	device_current
	873	Ig(Mpmos@59)	device_current
	874	Ib(Mpmos@59)	device_current
	875	Is(Mpmos@59)	device_current
	876	Id(Mpmos@58)	device_current
	877	Ig(Mpmos@58)	device_current
	878	Ib(Mpmos@58)	device_current
	879	Is(Mpmos@58)	device_current
	880	Id(Mpmos@57)	device_current
	881	Ig(Mpmos@57)	device_current
	882	Ib(Mpmos@57)	device_current
	883	Is(Mpmos@57)	device_current
	884	Id(Mpmos@56)	device_current
	885	Ig(Mpmos@56)	device_current
	886	Ib(Mpmos@56)	device_current
	887	Is(Mpmos@56)	device_current
	888	Id(Mpmos@55)	device_current
	889	Ig(Mpmos@55)	device_current
	890	Ib(Mpmos@55)	device_current
	891	Is(Mpmos@55)	device_current
	892	Id(Mpmos@54)	device_current
	893	Ig(Mpmos@54)	device_current
	894	Ib(Mpmos@54)	device_current
	895	Is(Mpmos@54)	device_current
	896	Id(Mpmos@53)	device_current
	897	Ig(Mpmos@53)	device_current
	898	Ib(Mpmos@53)	device_current
	899	Is(Mpmos@53)	device_current
	900	Id(Mpmos@52)	device_current
	901	Ig(Mpmos@52)	device_current
	902	Ib(Mpmos@52)	device_current
	903	Is(Mpmos@52)	device_current
	904	Id(Mpmos@51)	device_current
	905	Ig(Mpmos@51)	device_current
	906	Ib(Mpmos@51)	device_current
	907	Is(Mpmos@51)	device_current
	908	Id(Mpmos@50)	device_current
	909	Ig(Mpmos@50)	device_current
	910	Ib(Mpmos@50)	device_current
	911	Is(Mpmos@50)	device_current
	912	Id(Mpmos@49)	device_current
	913	Ig(Mpmos@49)	device_current
	914	Ib(Mpmos@49)	device_current
	915	Is(Mpmos@49)	device_current
	916	Id(Mpmos@48)	device_current
	917	Ig(Mpmos@48)	device_current
	918	Ib(Mpmos@48)	device_current
	919	Is(Mpmos@48)	device_current
	920	Id(Mpmos@47)	device_current
	921	Ig(Mpmos@47)	device_current
	922	Ib(Mpmos@47)	device_current
	923	Is(Mpmos@47)	device_current
	924	Id(Mpmos@46)	device_current
	925	Ig(Mpmos@46)	device_current
	926	Ib(Mpmos@46)	device_current
	927	Is(Mpmos@46)	device_current
	928	Id(Mpmos@29)	device_current
	929	Ig(Mpmos@29)	device_current
	930	Ib(Mpmos@29)	device_current
	931	Is(Mpmos@29)	device_current
	932	Id(Mpmos@28)	device_current
	933	Ig(Mpmos@28)	device_current
	934	Ib(Mpmos@28)	device_current
	935	Is(Mpmos@28)	device_current
	936	Id(Mpmos@27)	device_current
	937	Ig(Mpmos@27)	device_current
	938	Ib(Mpmos@27)	device_current
	939	Is(Mpmos@27)	device_current
	940	Id(Mpmos@26)	device_current
	941	Ig(Mpmos@26)	device_current
	942	Ib(Mpmos@26)	device_current
	943	Is(Mpmos@26)	device_current
	944	Id(Mpmos@21)	device_current
	945	Ig(Mpmos@21)	device_current
	946	Ib(Mpmos@21)	device_current
	947	Is(Mpmos@21)	device_current
	948	Id(Mpmos@20)	device_current
	949	Ig(Mpmos@20)	device_current
	950	Ib(Mpmos@20)	device_current
	951	Is(Mpmos@20)	device_current
	952	Id(Mpmos@19)	device_current